% Model:              Relay.mph
% Version:            COMSOL 5.5.0.359
% Date:               Apr 30 2020, 21:16
% Table:              Mutual capacitance 29 - 
% Mutual capacitance (F)                                                                                                                                                                                                                                                                                                                                                                                                                                                                                                                                                                                                                         
6.002738450666137E-30    1.2060077790560939E-15   4.540325419685706E-17    9.90736391587597E-18     1.6188515123915612E-17   3.513210052103844E-17    2.9219538813167297E-18   4.962451454725367E-17    5.1706441926563954E-17   1.2866307761938218E-17   1.0228004763587677E-16   1.1853619835418164E-16   1.3678592183336922E-16   1.212207214542528E-16    1.1915322710475954E-16   1.2542083055673316E-16   1.3023997589911346E-16   1.5723650949521745E-16   1.2992803645326424E-16   1.215551388489767E-16    1.2701635793228003E-16   7.935953853185562E-17    1.2964959705746355E-16   1.2905084811187658E-16   1.2504713697703788E-16   9.39845281154406E-17
1.0972168711545761E-15   5.02898827078395E-29     5.021742264274277E-16    1.6308638513201066E-16   2.467066004821073E-16    2.1161787115511634E-16   1.5758848797917153E-16   1.653422273761207E-16    4.218495006614486E-16    1.4059347308267344E-16   2.709626499934254E-17    -3.5700140763451164E-17  4.95244653813315E-17     -6.652972928432383E-17   1.0267052088693513E-16   -1.8925977096141128E-17  -3.245381967318918E-17   5.3261589172032726E-17   6.05986676330813E-17     -5.0026680057774376E-17  2.19504083436329E-17     1.3839205686375902E-16   -5.916269024084737E-17   -3.3274208735386533E-17  -2.320375176191092E-17   1.4871502507367262E-16
1.0214028377680452E-17   1.618184870855514E-16    -9.090389337507753E-32   3.2458024237379916E-20   1.3154790936159402E-19   -3.310555764780875E-19   -8.711425301805843E-19   3.2041872886272395E-19   -2.0033935158856177E-18  -1.1788141671547026E-19  6.389262479558168E-18    3.6585132635214053E-19   -1.3078035311911095E-19  1.905996916129555E-19    -1.994000727416476E-19   2.5813187419043644E-19   -6.965562566424904E-20   -1.9806577460859487E-19  9.879131237057838E-19    -4.90438414203122E-21    2.5501126950507775E-19   -6.694329769242097E-21   1.9138953368749464E-19   1.4388229522893857E-19   7.982604648853147E-19    5.860224390514606E-18
7.154731053808489E-18    1.7358250693642886E-16   -3.7956640171077414E-19  7.992609269207029E-32    1.936949099783595E-21    -3.0871865559728567E-19  -4.007715834073116E-19   -3.309675584172873E-19   -2.2864645518414463E-18  3.354024532379923E-19    -1.592641984849188E-18   7.702430795756864E-18    7.489679834034249E-18    1.8684758562385617E-19   4.094356124418493E-20    4.720191145230437E-19    -3.328648071440562E-19   1.0204520871426537E-18   7.336526993855842E-19    1.1192739846454123E-18   9.44180616997769E-19     -1.2276959481165026E-18  7.073528597726505E-19    1.3353173260361964E-19   8.554297288428809E-19    -1.0245668941738385E-18
1.0993479159548638E-17   1.6615221140373525E-16   1.1291821366587133E-19   -1.8000350312355966E-19  -4.41037957264677E-32    -2.236690477269461E-19   7.162808201652884E-20    -3.416485419504791E-19   -3.3600943414294893E-18  -2.266257100326037E-19   -4.387868272064786E-19   5.817789978296114E-21    -9.022298482940816E-20   7.44285440404945E-18     6.749308988409973E-18    1.0794286953375389E-19   1.970172503254931E-19    -4.710744575614661E-19   3.8819312148892563E-19   1.9486628253314658E-19   3.971067726614849E-19    -4.090510866933748E-20   2.431713098752416E-19    1.2139048229259403E-19   6.066293161811498E-19    -1.5216518431616096E-18
1.7987653849461414E-17   1.7131797541076055E-16   -2.7649344675087432E-18  -3.0166336552875707E-19  -8.0001005995476675E-19  -8.512610354191582E-32   -1.467231009490897E-18   -3.4603495174234425E-19  -3.070332703789117E-18   8.320862840322152E-20    -2.58934589417774E-19    -1.7923882954020745E-19  -8.629742372267798E-19   9.054163419559535E-20    -5.524801415218346E-19   6.954851623019698E-18    7.19020803541863E-18     -4.314258893227965E-19   1.8239679071306557E-18   -3.518248955725231E-19   4.116842464598952E-21    -8.738351646925794E-19   3.185814776505229E-20    -5.446245702979257E-20   -2.752498355475874E-20   -1.94115150157246E-18
1.1147189461651248E-17   1.5667197464302028E-16   -2.272701014695991E-19   5.291684920394376E-20    2.3712941121668218E-20   -5.545930321290812E-20   -1.519558726121529E-31   4.1367681533523886E-19   -7.2452208310418845E-19  2.70738302862422E-19     -2.1079924604864818E-19  -1.2112556341792052E-19  5.3449304352759745E-20   -2.3338254911637023E-19  7.405127221493633E-19    5.065048779653369E-20    -2.091505016893991E-19   7.188809200152467E-18    7.781798252900547E-18    -2.8816536580363825E-21  3.866612773041012E-19    5.579852473510475E-21    8.019732102531034E-20    1.6669359751892597E-19   8.342528717789932E-20    -1.1633125478466473E-18
3.097594746851113E-17    1.6856378677784843E-16   -1.677445343726859E-18   -6.133483319750612E-19   -6.639106365831493E-19   -4.532429436834802E-19   -1.2107389501558224E-18  -1.779559268613806E-31   -1.9854642105093474E-18  -5.582796010194261E-19   -1.1311519635670776E-18  -6.2712839884497305E-19  -1.1909935947775395E-18  -6.325174210633767E-19   -4.2517242369824616E-19  -4.453875910987822E-19   -6.841911277146234E-19   -1.1830047315639327E-18  2.0377971970208336E-20   6.550963857054407E-18    6.677468651733423E-18    -6.723474389570285E-19   -8.052093153387843E-19   -4.342877758456757E-19   -2.9109131323188115E-19  -2.0763661881626992E-18
8.926248953065655E-18    1.6560193856611185E-16   -3.144118169097129E-19   5.1546117141209926E-20   -2.168462466554825E-19   1.4857953036342434E-19   -3.2755123735014397E-19  4.8735985627938586E-20   5.334825945952643E-32    9.468092288692631E-20    -8.076740902787195E-20   9.825037498810468E-20    1.3930495431291556E-19   3.2826384826516196E-19   -6.438365149587919E-20   -1.2603744850460199E-19  -6.872651098682892E-20   2.02174907408868E-19     1.8911331684185026E-18   1.5858004781200058E-19   2.875391759422985E-19    7.389219449094317E-18    7.490637377218182E-18    -1.3602022142962408E-19  3.8076744332386163E-19   -1.1790359965336173E-18
1.794526080051964E-17    1.6937305019413812E-16   -1.7209723804043057E-18  -1.2962117313157134E-19  -1.006661688641665E-19   -5.0382096705200915E-19  1.834324540490474E-20    -2.1551318373808847E-19  -1.8594803588148805E-18  -1.2152617949083458E-31  4.954514202274095E-19    1.9653014335822132E-20   -8.561496714429636E-19   5.779724628757354E-19    -1.4725015943193365E-18  -3.5751841222891753E-19  -8.79499744696103E-19    -5.078430653609181E-19   4.4598897169893705E-19   4.936642306109597E-19    -5.663404010494905E-20   -1.4019262538752373E-19  -3.5583336774418335E-20  7.167745490561112E-18    7.037696968774658E-18    -1.3573892611657282E-18
1.1392665882971856E-16   7.341604248496377E-18    6.9344223408692584E-18   1.192515948172172E-19    3.8253881940378893E-19   7.23336192872487E-19     -5.390919033986074E-19   -1.0975334949658227E-19  -2.0117405546349464E-18  -1.5502465424975645E-19  4.0059342843254506E-32   1.815355245153549E-17    5.018279074852917E-19    4.551772884934446E-19    8.636700619277178E-19    3.9193558672858666E-20   5.876385783442756E-19    3.563557819733646E-19    8.906050248388417E-19    1.2467500385976952E-18   4.474698962355077E-19    1.2603699184800786E-19   -3.0831479437160643E-20  9.304873737561339E-19    7.363516732425067E-19    1.7171768600087498E-17
1.1464455899153177E-16   1.3363845441802619E-17   -1.7261012058776308E-18  7.14203866683489E-18     -3.8036039049351E-19     -4.749632053916722E-19   -7.515031917860798E-19   -8.368085493653824E-19   -2.803443185652165E-18   -6.751997861203066E-19   1.803616968071957E-17    1.4348178085684907E-31   1.81392550564645E-17     1.0360262172601402E-18   1.5382482177553948E-19   1.9187840938101396E-19   -9.491902563371974E-21   -2.238644343034221E-19   4.942752948253341E-19    9.275659509496915E-19    4.988702750098596E-19    1.836818935042148E-19    6.135911180177658E-19    4.8522268933757825E-20   4.468883438413942E-19    7.214184910148353E-19
1.2028644125159508E-16   1.3836258313960201E-17   -2.7942140863241327E-18  6.103528377835907E-18    -9.652487807579164E-19   2.630541611834549E-20    -6.62522598550614E-19    -1.0126338921772551E-18  -2.8329522696192597E-18  -5.103406548691506E-19   3.4898085622083405E-19   1.8725034464279686E-17   -3.2673401506529456E-31  1.7287910806448048E-17   1.5552250861843072E-18   2.811581553746111E-19    4.216436844661075E-19    -1.2860353944558758E-18  5.020373482034568E-19    5.833744994078552E-20    2.1529630256369364E-19   2.127174788376575E-18    -6.608926289764925E-20   -1.8398661547978342E-19  4.911384708008425E-19    4.649134608392449E-19
1.2983384404567119E-16   -4.906358767397588E-18   -3.1972550373406336E-19  2.0396921517089571E-19   7.464232925118522E-18    2.5509032419351497E-19   -1.1988092238251047E-19  -2.1523778682786152E-19  1.9656728028901714E-19   6.270128908284206E-19    4.0642225643321064E-19   2.2484381250166994E-21   1.6778307365802284E-17   1.1690394762430522E-31   1.5933062392132298E-17   -1.0080153248549558E-19  3.560648850848988E-19    -4.77455334570606E-19    2.1131777213204836E-19   2.172431497757917E-19    -4.75157942073613E-19    1.1005606536160425E-18   -3.6759533518106355E-19  -3.3129734578329983E-19  -5.801833953328331E-19   5.677861583389484E-19
1.0996171541294622E-16   6.6579439086248145E-18   -8.244410415679257E-19   2.3963354348588154E-19   7.425772802844096E-18    6.388225350362683E-20    1.9732492191567414E-19   1.1141546969047904E-19   -1.786079397464582E-18   1.5624659838162137E-19   -1.6326244356181385E-19  5.122612092069667E-19    1.9482403421494714E-18   1.6895214299427378E-17   4.8533434598558343E-32   1.8259863067450042E-17   1.4911192692783432E-18   1.2921885907678712E-19   1.050981429840579E-18    -1.1064574733941172E-19  4.801460006458688E-19    6.933314790862256E-19    4.704999088723844E-19    8.742833531499287E-19    3.890183047305963E-19    1.7741231105376895E-18
1.3052336761718074E-16   -3.232085007367461E-18   7.588951612149098E-19    2.5626854027250126E-19   3.091772717692137E-19    6.6244973148295066E-18   -1.0000503666121912E-18  3.508580232239521E-19    -4.297498965935181E-19   1.312216056120252E-19    1.4171978433806745E-18   -1.4842037495224682E-19  -7.743938281078432E-19   2.7895057536332783E-19   1.697264161560252E-17    1.2316321994356373E-31   1.792570006155095E-17    5.462335864297419E-19    5.708620939764187E-19    -1.6759174599896414E-19  -6.105880115408498E-19   2.9259654298687424E-19   -1.9360876996578942E-19  7.253363579210622E-20    -1.2293511509925138E-19  3.414748591686033E-19
1.1464371512295454E-16   7.600978870433354E-18    -1.5183709785234164E-18  -2.281153046981975E-19   -4.2064806810750073E-19  7.396837506783735E-18    4.3243836576275846E-19   3.0263178478167868E-21   -1.628620442812503E-18   -2.1844656935981784E-19  -3.369437848274442E-19   8.759501392180858E-19    1.0169006042590295E-18   6.207942878067028E-19    7.997404264970767E-19    1.8363978667635892E-17   4.660750465417111E-32    1.8109830057091897E-17   5.673358675853299E-19    9.193794929926452E-19    3.400933510615936E-19    7.225784167819831E-19    7.724058547023227E-20    1.797779582194592E-19    9.752125236740165E-19    1.4545858392007401E-18
1.2363172937609919E-16   2.9036971192599136E-18   9.193023087277526E-19    -1.1528051299855813E-20  -1.5763005050368173E-19  -8.358516906348182E-19   6.993235888144872E-18    -6.391028048549852E-19   -1.854714192071064E-18   4.380066390758308E-20    1.2958884518586426E-18   -3.968564265784232E-19   -2.0648961720755208E-19  3.36525755063333E-19     3.5846567643754156E-19   1.0602702010927027E-18   1.760031731348672E-17    3.7940819904428546E-32   1.6567366704554402E-17   4.789886561488609E-19    -1.0889302907336279E-19  2.8876122940117714E-19   2.190209661554797E-19    -2.325744080433723E-19   7.466931439830661E-21    9.745772270368964E-20
1.2325893254635095E-16   1.3418057999393305E-18   -1.0473816618226968E-18  5.515426649718122E-19    2.4839626312797225E-21   3.8273942937681846E-19   6.860603910466494E-18    4.0527180269337394E-19   -1.7101947468484077E-18  5.0651441559260865E-19   2.607013485926683E-19    5.005314509647082E-19    -5.392517173152687E-19   -7.511129300976606E-20   5.864907046605655E-19    1.706547134885319E-19    1.123343513357839E-19    1.547007335084611E-17    -4.0637121826570676E-32  1.915480597815554E-17    2.5556111111046212E-20   1.4216689734494925E-18   -4.864194154076619E-19   4.748060314062692E-19    -2.5053290719038764E-19  4.601877248385496E-19
1.2560505345738128E-16   2.5039493403519635E-18   2.878971381658804E-20    1.8533877883881506E-19   -6.399664955922692E-19   4.674255503720995E-19    -4.771866320549914E-19   5.9347037619526916E-18   -4.0497745800847114E-19  -3.4034468110227072E-19  -8.593102824966462E-20   -6.486296904635811E-20   -1.0896767857623494E-19  6.379563160421385E-19    -6.331369764439351E-19   -4.180552492303158E-19   2.469242601816796E-19    -1.5156793913046943E-19  1.9398227382709424E-17   -2.092041402090635E-31   1.853242582001369E-17    7.941104152844086E-19    -4.1019965238942837E-19  -4.112446417249653E-20   -9.952987883230303E-20   3.8017879108269547E-19
1.0014493235246414E-16   6.2291375938044976E-18   5.455670530075862E-19    -2.121469826856327E-20   9.73631068408528E-19     2.402331140776663E-19    3.6607745475235565E-19   7.314545322088594E-18    -3.272751868563282E-19   5.410274306461305E-19    9.283925566631204E-19    1.6058626892949758E-18   9.428593518101522E-19    7.468131800157262E-19    5.036413275840067E-19    6.342853845484045E-19    1.3207899458041276E-18   8.609673485468455E-19    3.001117519598406E-18    1.8715650116123046E-17   1.1285949474109202E-31   1.898496529198206E-17    1.0138250659159027E-18   5.246944208263517E-19    1.2756983761238343E-18   1.2925555227573858E-18
1.3146889002226459E-16   -2.353466800821987E-18   1.1746310519095788E-19   5.353908269131023E-19    5.185254927826779E-19    1.4175930587966013E-19   -4.1580021533846766E-19  -6.76934041779293E-19    6.207267707979411E-18    2.2437944559387843E-19   -1.174998779958312E-18   6.660891442483091E-21    -8.222758637758052E-19   1.0107240221906288E-19   -1.2463613532382103E-18  -1.695947430596811E-19   -1.296999110522838E-19   6.900459514965481E-19    -1.8029585095160774E-19  4.592541250432155E-19    1.7862115166019556E-17   2.005856037079306E-31    1.6903493356873495E-17   1.5800964438016464E-19   -6.639086224705024E-19   2.3044190878549654E-19
1.2019373305948627E-16   5.327739289669866E-18    -1.241322561587999E-18   1.990319533429394E-19    3.712339424138229E-19    -9.20125604911946E-19    -9.423602996979886E-19   -8.005939904409441E-19   6.621174148783812E-18    -1.0368731354200164E-20  1.703407872196803E-18    4.613176114229412E-19    -7.236604508761672E-20   4.840943199471985E-20    -7.989813271398607E-19   -7.582890749995211E-20   6.142625538041181E-19    3.142454015794426E-20    -7.849330806205278E-19   3.6056747391613574E-19   3.242677929925618E-19    1.6740350532001564E-17   -3.0362285573264773E-31  1.6954084871714393E-17   4.492488454811459E-19    3.393832518457089E-19
1.2755036690587422E-16   3.048615481373918E-18    1.9362629146068395E-18   -2.497834957513373E-19   -3.5137414247144527E-19  3.016085698426291E-19    1.7338288272792673E-19   -9.74075245463859E-19    -1.6962063809644662E-18  6.5349328408819135E-18   6.67760847688101E-19     4.896250262720947E-19    -4.970982935647387E-19   5.1030105713168074E-20   -5.015048720564653E-21   1.6088592638478101E-19   -2.9510586718698455E-20  -7.110831706309758E-20   -8.852693998775824E-19   4.936533015382619E-19    1.2585306319648243E-19   7.932451895164176E-19    1.7287869945867395E-17   -2.590375775200832E-32   1.7196183737851524E-17   -2.543142413071443E-19
1.1916563938444608E-16   1.1337604013363862E-17   -1.3124185147958045E-18  -1.9201678954696623E-19  -1.2618515272574795E-19  -8.689764472863197E-19   -1.144154950630495E-18   4.664222981504327E-20    -1.5282016646470023E-18  6.421898772680512E-18    -8.08911890960816E-19    2.843244653786027E-19    -2.8244810435378957E-19  4.823951673059075E-19    -8.176709684273237E-19   -3.922828202656544E-19   6.508765435117774E-20    4.478426962337904E-19    -1.9888786933244988E-18  6.837999701437539E-19    -1.8288423092661728E-19  2.6447245767584516E-18   1.0887757088908672E-19   1.8156223498700255E-17   -2.064596900383117E-31   1.6572534004227597E-17
1.3468156364172595E-16   -2.9171488671083386E-18  6.469810389555214E-18    -2.030813980673365E-19   -8.113295852655112E-22   -9.580515693579054E-20   -1.7587201903047025E-19  -3.0991281171566444E-19  -7.105890441849135E-19   -5.41985645694509E-19    1.7717600973415988E-17   1.1670608201612413E-19   -6.957008545327382E-19   -2.548529796315683E-19   -2.7211988244177015E-19  -4.717544780864619E-19   -6.052099199422259E-19   3.1707756093219513E-20   -3.4059407145717874E-19  -7.768407424116972E-20   -7.84564479895653E-19    9.717407626526691E-20    -2.016352767091618E-19   -4.577740516760578E-19   1.6717007744285604E-17   0
