% Model:              Relay.mph
% Version:            COMSOL 5.5.0.359
% Date:               May 1 2020, 07:18
% Table:              Mutual capacitance - 
% Mutual capacitance (F)                                                                                                                                                                                                                                                                                                                                                                                                                                                                                                                                                                                                                         
1.4336745435861823E-16   1.1956951981433427E-15   1.0269712851416233E-17   1.051223565831573E-17    1.0284566810067885E-17   1.0496999278091192E-17   1.0259334873017697E-17   1.0536873166312977E-17   1.0243805613459829E-17   1.0513722542199138E-17   7.674914839882503E-17    7.599193499511592E-17    7.684481431675632E-17    7.626813699582247E-17    7.63271638180599E-17     7.639657917614889E-17    7.649480347665147E-17    7.651350908190601E-17    7.649290975918474E-17    7.633965805215595E-17    7.568527706478582E-17    7.634878637013232E-17    7.613167190487673E-17    7.613162700651584E-17    7.552664826083548E-17    7.615685265784663E-17
1.1956815995993956E-15   3.2302211517302997E-16   1.2864447188390073E-16   1.3379075744010005E-16   1.2984514744153058E-16   1.3312397514349324E-16   1.285878926047342E-16    1.3363235559825974E-16   1.2979417440533377E-16   1.3346121654059186E-16   5.964110119586333E-19    5.265137493696749E-19    5.451731974932334E-19    5.854497200814784E-19    5.93035422418021E-19     5.341456750617466E-19    5.185471689200173E-19    5.898655526378602E-19    5.896871441338405E-19    5.365867122974597E-19    5.423588914638653E-19    5.742308584929524E-19    5.678460756875396E-19    5.367788515732985E-19    5.287445998453004E-19    5.853699800684575E-19
1.0270023328223903E-17   1.2864526605207755E-16   9.828158656398538E-23    2.2475794103110006E-20   1.3701765854697773E-24   9.54382268999479E-25     7.383316038695084E-25    -6.004971405971525E-25   -5.954090064851018E-25   2.179759602649484E-20    5.720687578768719E-18    7.954981922728176E-21    7.238401350832813E-23    9.416719138792454E-24    -1.780941146543137E-24   -6.749221670883337E-24   -1.0459524044497725E-23  -7.60023797570685E-24    -7.844294786196375E-24   -8.472697895605509E-24   -6.110244156901068E-24   -1.9379246385132775E-24  1.0879605806143759E-23   7.712305935661316E-23    8.058708871792928E-21    5.761487231103826E-18
1.0512580569113246E-17   1.3379148240568155E-16   2.2480348499076905E-20   5.42162785013369E-23     2.1335463682118672E-20   8.59145711105566E-25     5.92973809864509E-25     -7.271454158187262E-25   3.0064763360193647E-25   1.0232418976948E-24      8.475920253110528E-21    5.829005209992002E-18    5.768983764471261E-18    8.580904756216709E-21    7.170893705341176E-23    8.01852228865454E-24     -6.5735938319877494E-24  -7.110021173436754E-24   -8.751120035581629E-24   -1.0485343655068593E-23  -9.58003526135891E-24    -8.457467057517551E-24   -6.506386214544757E-24   5.11714298902045E-25     -1.2283168551626247E-25  6.581501292319703E-23
1.0284764908389424E-17   1.2984557859588464E-16   3.316616877757696E-24    2.133310076928172E-20    8.151214356011401E-23    2.3158439208831783E-20   1.7281356321298058E-24   4.1390256623256327E-26   1.4731636977593092E-24   1.9666560031582465E-24   8.646891799095038E-24    7.096418276626885E-23    8.862470542582108E-21    5.751359791638531E-18    5.7604600138905885E-18   8.999384295282418E-21    7.133637824044674E-23    9.456374692294104E-24    -2.6580561214853307E-24  -7.232131096228759E-24   -7.763819587219371E-24   -7.571678542275063E-24   -6.681715264352552E-24   -1.8305363264441778E-24  -1.603412080845979E-23   -4.257139805694023E-24
1.0497205409902063E-17   1.3312447442658728E-16   3.2170396950249107E-24   -6.004913163492237E-25   2.3158668652789704E-20   8.519262595888273E-23    2.2069072683771872E-20   1.275838155679991E-25    1.826875627775269E-24    2.4889704213859176E-24   -8.385153115032912E-24   -4.780272581439365E-24   8.360260147296383E-24    6.896156133910542E-23    8.616124682031074E-21    5.8046689441333954E-18   5.842304820091983E-18    8.981468529239656E-21    6.800324937224448E-23    6.593609688050033E-24    -4.9166828714442225E-24  -7.596450324619981E-24   -7.995658997692202E-24   -3.73673895234792E-24    -2.1268570388034252E-23  -1.1036680914635534E-23
1.0259437152385475E-17   1.2858831752621325E-16   2.362187733619734E-25    -1.5899477436742198E-24  6.218689827435106E-25    2.2066913650614126E-20   6.641485447096484E-23    2.1759591787452788E-20   6.815494798459563E-25    -1.1555391325035131E-24  -6.286606943039543E-25   6.465295814749166E-25    7.642506364890143E-25    5.393167003990851E-24    1.5614886410833965E-23   7.220771677085844E-23    7.701550244810848E-21    5.7247719353628455E-18   5.7229863761962804E-18   7.99558282824646E-21     7.480248288276289E-23    1.6210873148817107E-23   4.994395594602155E-24    4.973266753741695E-24    -6.4722062674703236E-24  -1.1350035008902612E-24
1.0536819790611633E-17   1.3363299246502432E-16   -6.0057780982910644E-24  -2.2253292425175456E-24  -1.6575415162172583E-24  -3.35828003539781E-24    2.176008886282138E-20    -5.689574571952735E-23   2.270669396559129E-20    -7.043412894968246E-24   2.1950165744204562E-23   2.3631326006441747E-23   1.7518607044031027E-23   2.4254873840327226E-23   2.2973323924263667E-23   2.7882083370376404E-23   4.325234804030006E-23    1.0390687090348405E-22   8.434948063608254E-21    5.792179987442848E-18    5.783017085509967E-18    8.553319315455608E-21    1.0133222417471369E-22   3.439001441055143E-23    3.6368774973738205E-23   2.5103397352049238E-23
1.0243866257408048E-17   1.2979491965860512E-16   -5.039575225507026E-24   -2.8491395592680368E-24  -1.2491921507649686E-24  -2.9375297030388445E-24  -4.795437676678886E-25   2.2704072678405905E-20   -1.988562156604024E-23   2.2057393899258528E-20   1.8904240769167743E-23   1.7503803014923082E-23   1.077307762469283E-23    1.594167667200381E-23    1.3260944605319143E-23   1.4262721006761804E-23   1.6944059358334648E-23   2.002346018939785E-23    3.1119863620002344E-23   8.941477881445919E-23    8.587646947979912E-21    5.756442007651592E-18    5.80065271404832E-18     8.546715206140918E-21    9.847364075468936E-23    3.198392829986155E-23
1.0514002686172509E-17   1.3346222697941427E-16   2.1794581416442923E-20   -2.052311966240574E-24   -1.1820967025928734E-25  -8.988776137424767E-25   -4.025073224760771E-25   -1.3800832426229889E-24  2.2060782722973018E-20   6.142568211473157E-23    8.597085104776137E-23    2.4783971005394375E-23   9.344223634355556E-24    9.06005785915414E-24     6.078939560334993E-24    5.297615538972083E-24    5.253545543304458E-24    6.915667624496089E-24    8.175665621513438E-24    1.0229623028313829E-23   2.399913206331747E-23    8.494922518589106E-23    8.095078730340885E-21    5.7878406219244545E-18   5.818401337736023E-18    8.423747546885939E-21
7.674535047368573E-17    5.943698551647133E-19    5.720625040911789E-18    8.734186261536186E-21    4.5912846146228106E-23   -3.478621819233521E-23   -4.400636460814419E-24   -1.3776882794840858E-23  5.685211943715882E-23    2.1658782091316944E-22   1.434708025730581E-19    1.432782735139798E-17    3.762319644128116E-19    8.688584718086385E-20    3.451936123277953E-20    1.8374170522279472E-20   1.187001951875951E-20    9.190792125308295E-21    8.476907957881939E-21    9.24885647697846E-21     1.1915120790949285E-20   1.8204444186072993E-20   3.444397281246727E-20    8.600573303148581E-20    3.6358665383622044E-19   1.3774620624873553E-17
7.599012250031662E-17    5.25174361965575E-19     8.294826021552445E-21    5.828961170840469E-18    2.2150844768402157E-22   -1.9880143104056754E-23  2.9108977183485584E-24   -4.5298117958558455E-24  9.803895519993998E-23    1.2209753470962718E-22   1.4327773149002973E-17   1.3986538549220078E-19   1.508993523815717E-17    3.758681846107865E-19    8.594298211602574E-20    3.4885686638630327E-20   1.827002583823061E-20    1.1770917172822938E-20   9.145175221305267E-21    8.456687101955571E-21    9.21306655754056E-21     1.1812550428761118E-20   1.8243459836811874E-20   3.472678381553797E-20    8.731777393759236E-20    3.6335098275002877E-19
7.684901320755697E-17    5.436681456598627E-19    2.8926087413560986E-22   5.769085569526263E-18    9.168835684789607E-21    5.19825395388881E-23     5.78674001948975E-24     1.3777694540690799E-25   5.196186103234641E-23    6.925292244917857E-23    3.7581897651388014E-19   1.5089609535259948E-17   1.3851331222398947E-19   1.4303416480587233E-17   3.6239526729438873E-19   8.684427480100086E-20    3.441540335494062E-20    1.7897456863345327E-20   1.150244493543324E-20    8.930969988606162E-21    8.18234184157518E-21     8.861611848795944E-21    1.1459814841418578E-20   1.7878662576574504E-20   3.433946775251789E-20    8.557254080418077E-20
7.62679112204149E-17     5.856588962951011E-19    1.0519747399686396E-22   8.886343062072425E-21    5.751135535243378E-18    2.0695553994571634E-22   2.840013625227469E-23    1.0750047112904277E-23   6.065005656745281E-23    6.040738924253862E-23    8.662218020433798E-20    3.757093645301336E-19    1.4303560412480918E-17   1.415074302447533E-19    1.3742455032858073E-17   3.6400228081923235E-19   8.644760838833761E-20    3.4280924916991016E-20   1.7927323704127338E-20   1.1651617389417919E-20   8.993652554255121E-21    8.234141845712208E-21    8.938022116821479E-21    1.1606366380577927E-20   1.8091634574619967E-20   3.419450772167589E-20
7.6326140089278E-17      5.934809901169068E-19    6.519468257475073E-23    2.303144735066188E-22    5.760226554468307E-18    8.835065111227137E-21    7.242223411247977E-23    1.2626156278265718E-23   7.807877060656679E-23    6.890926283245103E-23    3.4294406730737735E-20   8.585204232476915E-20    3.62607492540855E-19     1.3742414295609588E-17   1.4163673510290593E-19   1.4332093050857246E-17   3.7492716226615006E-19   8.654554032102583E-20    3.410345085454081E-20    1.8061114881620955E-20   1.1620597692767688E-20   8.991896786947808E-21    8.248996887230282E-21    9.016251145163085E-21    1.1704046307446934E-20   1.8017188563957577E-20
7.639694877246468E-17    5.340050590198659E-19    6.321772781968954E-23    6.020766690810988E-23    9.218062944264225E-21    5.804532056479553E-18    2.316171562835553E-22    2.2671915189702355E-23   9.475587714542807E-23    8.512377534691341E-23    1.810208066946759E-20    3.4753577372219114E-20   8.696013506976104E-20    3.639642786032996E-19    1.4332148493238848E-17   1.3890784675083094E-19   1.5040795434160608E-17   3.752273786533535E-19    8.621785573944583E-20    3.474305161285986E-20    1.8072890974175967E-20   1.1670135426871424E-20   9.020716520609237E-21    8.31538652731881E-21     9.077692309415842E-21    1.1673201881167976E-20
7.649552069937459E-17    5.182127228836847E-19    6.497561097492409E-23    1.4116822008168874E-23   2.359252884903708E-22    5.842216811828611E-18    7.949902137493262E-21    6.365327004636125E-23    1.071317002559444E-22    9.225371565700201E-23    1.159138749344529E-20    1.8141210960151684E-20   3.4523514659940945E-20   8.63927433384342E-20     3.748069216364788E-19    1.504080879354893E-17    1.3876837417649987E-19   1.4371745263702026E-17   3.6486791827745585E-19   8.760776504751461E-20    3.4518243706950914E-20   1.8112134691837806E-20   1.1669407934655523E-20   9.052330094506126E-21    8.30707466789848E-21     8.977037421649387E-21
7.651150267527676E-17    5.90403372819131E-19     5.322463615716127E-23    9.000883030751761E-24    6.534691800636354E-23    9.215273762692303E-21    5.724575758888853E-18    2.1594829374489646E-22   1.0289434647290036E-22   7.401500806247937E-23    8.997416767538552E-21    1.1727959540446942E-20   1.8112478734683294E-20   3.4360684986547634E-20   8.658533222277151E-20    3.753446639353444E-19    1.4371754533364974E-17   1.417163649317413E-19    1.3781000867573096E-17   3.650903297432704E-19    8.605065040886616E-20    3.44317620073682E-20     1.801064648213037E-20    1.1709823983890536E-20   9.07231591633053E-21     8.282471269220357E-21
7.649207677228333E-17    5.897859441576455E-19    3.513614917718552E-23    3.5206475170259955E-24   2.2383363585341562E-23   2.0423078556467008E-22   5.722782978937059E-18    8.681696432488999E-21    1.1597242702865881E-22   5.0977269736664084E-23   8.240276346876197E-21    9.060760156007325E-21    1.1679341160347683E-20   1.7962901817285813E-20   3.4100477594120206E-20   8.627985380242468E-20    3.6499262883487923E-19   1.378097053936293E-17    1.4163395792493388E-19   1.4422487401607808E-17   3.7529838444089935E-19   8.739979924731159E-20    3.4256234406173994E-20   1.8073149593528684E-20   1.1676809819549137E-20   8.973646458391267E-21
7.634275979631064E-17    5.35247713128421E-19     7.960873142795612E-24    -1.047790992215605E-23   6.96229115362265E-24     5.563890503779053E-23    8.260749709936784E-21    5.792187305723539E-18    2.47971390040202E-22     2.707029236869858E-23    8.9053612384893E-21      8.261589650718104E-21    8.984227348399038E-21    1.1561697283500052E-20   1.793375926160414E-20    3.465905113444595E-20    8.755618857854534E-20    3.6487694720212923E-19   1.4422401674096304E-17   1.38835329782858E-19     1.506227760346607E-17    3.7942936200682783E-19   8.603276174556963E-20    3.457327295588074E-20    1.8113382354139734E-20   1.155068562295843E-20
7.56865796411315E-17     5.416524850703554E-19    1.413448914519576E-23    -5.227409544912976E-24   7.643223437390416E-24    1.496343146755308E-23    2.234503952943178E-22    5.782924832926463E-18    8.859577621396982E-21    7.799736746904981E-23    1.1613424991713326E-20   9.061834299361539E-21    8.289308547323E-21       8.954757925677556E-21    1.1547293551773912E-20   1.8046163993030586E-20   3.451248321209801E-20    8.593750364267107E-20    3.7519991426787885E-19   1.506232536801629E-17    1.3887371425252209E-19   1.434032866824987E-17    3.6386267660559936E-19   8.711666646640628E-20    3.471501801718915E-20    1.8054190758093198E-20
7.634572494699672E-17    5.737833057515107E-19    3.2645408878635666E-23   1.3226235715151469E-24   5.233199123186667E-25    -9.517297189579361E-24   6.754374521147154E-23    8.771666653746602E-21    5.7564285336871744E-18   2.4375613867891875E-22   1.809707206800745E-20    1.1855826266813332E-20   9.157047545323577E-21    8.390339176807723E-21    9.11468067162665E-21     1.1833346335054668E-20   1.8282894815041383E-20   3.4516522317050394E-20   8.751645790800578E-20    3.7970559147705345E-19   1.4340379994065977E-17   1.4215157043253832E-19   1.3843945220010644E-17   3.6351209152831535E-19   8.642974534676984E-20    3.444319296327397E-20
7.612643668053747E-17    5.658505995357586E-19    2.4037087216827677E-23   -7.945976493428548E-24   -1.2960686003612111E-23  -2.936087861130357E-23   1.0872916658684868E-23   1.956926580617996E-22    5.8005855241919395E-18   8.338731337880561E-21    3.450787472239087E-20    1.8462638539433102E-20   1.1913285377914046E-20   9.269264423055867E-21    8.53953816727567E-21     9.353821729438009E-21    1.2011869322030106E-20   1.8267927839503306E-20   3.456006947192604E-20    8.648592195404424E-20    3.642376431611241E-19    1.3844071860516978E-17   1.4399210846323442E-19   1.4357147053541576E-17   3.774007727739826E-19    8.711319743734284E-20
7.614135479980285E-17    5.344782661586896E-19    8.931212660314119E-23    -1.124310286024982E-23   4.8643769197433204E-23   8.721210781802515E-23    -4.863994545815318E-24   5.2832912768374205E-23   8.520008157148698E-21    5.7877601270302E-18      8.543123934762174E-20    3.426215945429186E-20    1.7698676116615073E-20   1.1231339422739725E-20   8.598009412562026E-21    7.959963263430693E-21    8.698850190061634E-21    1.1248600280705016E-20   1.7655140670852257E-20   3.4337315347762196E-20   8.683946469134056E-20    3.63041794030306E-19     1.435655896281933E-17    1.3764212297006044E-19   1.502432296999039E-17    3.7511725991693745E-19
7.552718552394358E-17    5.241168186138623E-19    8.243519308202922E-21    2.5696537603007718E-23   -1.0335240581472138E-24  -3.9658486391794754E-24  -2.190636492010513E-23   -1.6989811738092537E-23  5.863866427567874E-23    5.818335237525928E-18    3.633378564607488E-19    8.729702283276653E-20    3.4611253969502306E-20   1.8270974282067048E-20   1.1848127951743212E-20   9.283222935590536E-21    8.53230398138346E-21     9.195935022638898E-21    1.1835236685007999E-20   1.837144855177859E-20    3.4902835383437276E-20   8.635982910418091E-20    3.770793393884938E-19    1.5025006765119617E-17   1.4108509984120322E-19   1.430836158342202E-17
7.6165630773537E-17      5.838107702008464E-19    5.7614121579800886E-18   2.140353247052206E-22    6.470496465380195E-23    8.162282086804363E-23    7.515988726526497E-26    1.5106996712910316E-24   -1.8096103015457221E-22  8.640103530836535E-21    1.3774091513228818E-17   3.628433413731014E-19    8.540100689022347E-20    3.384322902241054E-20    1.7628503981077834E-20   1.1348699136819402E-20   8.658891237493567E-21    7.85532497266834E-21     8.586195350733376E-21    1.132080428509447E-20    1.776310214045353E-20    3.3949871427035184E-20   8.642803581475834E-20    3.7501442933683448E-19   1.4307763102361076E-17   1.404251201755246E-19
