% Model:              Relay.mph
% Version:            COMSOL 5.5.0.359
% Date:               May 15 2020, 08:45
% Table:              Parasitic Extraction (Off) - 
% Ambient Fluid index    Mutual capacitance (F)                                                                                                                                                                                                                                                                                                                                                                                                                                                                                                                                                                                                                           
1                        1.4426554910486463E-16   1.1976431995983324E-15   8.275536908635958E-18    8.388300610536226E-18    8.262056721705087E-18    8.39199292035024E-18     8.291183926397718E-18    8.39864717887891E-18     8.281698435615186E-18    8.422265632825243E-18    5.484128715641217E-16    5.482139408614279E-16    5.486011258273065E-16    5.484379478175233E-16    5.485158273386469E-16    5.48457491036104E-16     5.480700592449644E-16    5.482258588377707E-16    5.483085659861357E-16    5.483484676444275E-16    5.480930053728378E-16    5.48333047165895E-16     5.488636108188931E-16    5.480731224187735E-16    5.484738186051663E-16    5.482859837970965E-16
                         1.197705568902931E-15    3.2345489082699406E-16   1.2504142262759255E-16   1.2763014779988815E-16   1.252763080562894E-16    1.2788073253276015E-16   1.2497111654337425E-16   1.276491501331136E-16    1.253681656749746E-16    1.2795699441738216E-16   7.099157424792046E-19    6.777893994476135E-19    6.819977595975336E-19    7.115050357904106E-19    7.101637015656343E-19    6.807948869466417E-19    6.799456693864414E-19    7.043919813877762E-19    7.099406340923319E-19    6.785898321854226E-19    6.819803759609429E-19    7.166041858312769E-19    7.136630442524542E-19    6.86442893830469E-19     6.748426543571507E-19    7.052716535319441E-19
                         8.2755762466364E-18      1.2503524107131825E-16   -1.8954939049800834E-22  1.5175081690361044E-20   -6.79668115204716E-23    -7.05143265200798E-23    -6.743779679791623E-23   -7.08638127618419E-23    -6.777244344237713E-23   1.5840454540971587E-20   3.685411431569807E-18    3.684420479251473E-21    8.513031447154337E-26    1.4221894021959862E-25   6.575195647429167E-26    1.5393012294417937E-25   4.284893086924192E-26    -1.6788626767967055E-25  6.127983861869196E-26    1.3682647264402538E-26   8.988852667816894E-26    7.874099660644129E-26    1.0289311209197133E-25   2.2431679078091353E-25   3.7578548775389184E-21   3.692587737093383E-18
                         8.387628825618619E-18    1.2762530654263717E-16   1.5108722844673776E-20   -4.0138180983657993E-22  1.5197533266098262E-20   -1.4159064265383612E-22  -1.3633019841163704E-22  -1.4157878145638336E-22  -1.3629605725694496E-22  -1.4496329831776144E-22  3.664626330118118E-21    3.71655438981885E-18     3.703348728394113E-18    3.707292153489956E-21    -5.992514618373501E-25   -4.885162171160571E-25   -6.968062718682334E-25   -1.0458591715451097E-24  -6.339344636657368E-25   -6.63128142100636E-25    -5.745436969827128E-25   -6.538787948649473E-25   -6.156333633186792E-25   -3.8527543670307567E-25  -4.061829319971876E-25   -1.139301847020826E-24
                         8.26254805490541E-18     1.252691195401353E-16    -1.596896521662651E-23   1.5317363833720907E-20   -7.048993608913659E-23   1.543026400415247E-20    -1.4651583129918673E-23  -1.717722719669352E-23   -1.478603171846832E-23   -1.8847898544252467E-23  2.4069178984686133E-25   2.2274826709120616E-25   3.799728325601528E-21    3.68364037893471E-18     3.6931640255284575E-18   3.879667760045924E-21    9.721978790871812E-26    -1.2213677142986932E-25  1.2353516598108222E-25   7.821116317100571E-26    1.6395884915343713E-25   1.39760904277378E-25     1.507950645408738E-25    2.7426132794759634E-25   2.8383612409777114E-25   -1.6786024209364502E-25
                         8.39155484563477E-18     1.278753546926431E-16    -1.1032915981073027E-22  -1.1388097033826674E-22  1.5337077300265856E-20   -3.315167254672751E-22   1.560976090571363E-20    -1.1381953835776915E-22  -1.0917494311730936E-22  -1.1671431745384244E-22  -4.518388334560345E-25   -4.667454362501435E-25   -5.088129092309923E-25   -4.655873769634641E-25   3.568422384312539E-21    3.713598095025417E-18    3.71329016375332E-18     3.7492631419710355E-21   -5.495250657150013E-25   -6.1839330653040365E-25  -5.168811831030429E-25   -5.879174511886686E-25   -5.640855137841093E-25   -3.5286982007312063E-25  -3.5835459181401522E-25  -1.0533743659219127E-24
                         8.293232926039339E-18    1.249606195107828E-16    1.448370957315038E-22    1.4717968596975475E-22   1.4637397816813512E-22   1.5867381819444292E-20   3.7985698358433106E-22   1.57613794364474E-20     1.4615798373320233E-22   1.4774639366728574E-22   9.81538678097418E-25     8.89577672183738E-25     8.884818095418412E-25    9.609734313769498E-25    8.805723735265344E-25    9.506103008627289E-25    3.826926921561813E-21    3.704738374785518E-18    3.698374590696235E-18    3.840983058927434E-21    8.673962383562428E-25    9.128112295176566E-25    8.975892719884448E-25    9.104269375246773E-25    9.494410600337064E-25    7.558619389234277E-25
                         8.39783845704237E-18     1.2764461559825322E-16   -1.5385799602325348E-22  -1.5855863273385238E-22  -1.5368306381794713E-22  -1.5845174010905069E-22  1.5461221063530325E-20   -4.3744023583208E-22     1.5398010119649758E-20   -1.613093116000831E-22   -6.31538883902395E-25    -6.339556825174474E-25   -6.920799373458449E-25   -6.493004025535305E-25   -7.46997801434699E-25    -6.1625531988509E-25     -8.190314263728616E-25   -1.1427905686205562E-24  3.841005471914027E-21    3.715922506956678E-18    3.705581054753562E-18    3.769194265317244E-21    -7.131976947778718E-25   -5.204164293690836E-25   -5.417608976673502E-25   -1.2261357429168462E-24
                         8.282704237553798E-18    1.2535994782938612E-16   3.2000632129183324E-23   3.1648515718446775E-23   3.28949651210425E-23     3.2416927709414917E-23   3.321958766238799E-23    1.558284494450052E-20    5.180656771931736E-23    1.5152658031302468E-20   3.8995294533685777E-25   3.32771303376127E-25     3.0538988144618083E-25   3.684624209247193E-25    2.833351907366555E-25    3.679526184650586E-25    2.2725125412692485E-25   2.779107652801168E-26    2.668888253244803E-25    2.31682912026376E-25     3.776785492671359E-21    3.684021509316862E-18    3.693018845707202E-18    3.811688050546542E-21    4.462772808199937E-25    -2.437645356566898E-26
                         8.42453728856367E-18     1.279457100394456E-16    1.6084061416407858E-20   1.7480622512518778E-22   1.7372197557162616E-22   1.76796202987354E-22     1.7375230400902487E-22   1.747853224737987E-22    1.5294176237487777E-20   5.102591937770807E-22    1.974072711452567E-24    1.7985169327245717E-24   1.7966367075499422E-24   1.887123919371609E-24    1.8307300549019032E-24   1.79111953521059E-24     1.823010900949849E-24    1.8869692846178834E-24   1.8214017186045294E-24   1.7907496298364857E-24   1.7943150127705193E-24   1.922421374753412E-24    3.5774371669236494E-21   3.709599840608112E-18    3.714390665960506E-18    3.645382466238624E-21
                         5.484036971842956E-16    7.29141114335073E-19     3.684463621207182E-18    2.6974617818232804E-21   -9.499073679960782E-22   -9.702092454599234E-22   -9.481302022988256E-22   -9.679689431579633E-22   -9.500858011425725E-22   -9.722879843493886E-22   1.3429033203967557E-19   4.7620575204560363E-20   5.109172070806612E-21    1.6172572041565833E-21   7.723895680030863E-22    4.681154127495628E-22    3.3804627416966873E-22   2.81475110072297E-22     2.6206514085727984E-22   2.7768403479158566E-22   3.3601028314895877E-22   4.694065267957644E-22    7.742418498623328E-22    1.6158287284429754E-21   5.115730701576643E-21    4.6388155348811714E-20
                         5.482049267641098E-16    6.966881047238906E-19    2.752575383892322E-21    3.7156032485856664E-18   -9.338300878250867E-22   -9.538336555820548E-22   -9.321013276058884E-22   -9.516108582082606E-22   -9.340025388636803E-22   -9.55957306304516E-22    4.762049501502159E-20    1.318833076772115E-19    4.784639530312922E-20    5.113319290301458E-21    1.6184156638960296E-21   7.718491631861913E-22    4.682090260194769E-22    3.3834036939710822E-22   2.779168162032039E-22    2.602670841711002E-22    2.7731545987305883E-22   3.368833993118878E-22    4.684894751836589E-22    7.695935322519829E-22    1.621813219297672E-21    5.1133507599435226E-21
                         5.485928112667888E-16    6.994232306827583E-19    -8.590783610916551E-22   3.70247123422076E-18     2.9385965087575194E-21   -8.793951553302517E-22   -8.593612840965078E-22   -8.773879225103514E-22   -8.61155122052066E-22    -8.813216764641126E-22   5.109615777095211E-21    4.784691708411958E-20    1.3204097241218288E-19   4.770346876330099E-20    5.107502976729083E-21    1.622376836374324E-21    7.729855103906663E-22    4.7001535982495735E-22   3.3621558727144307E-22   2.77209613023808E-22     2.608517810816148E-22    2.7898258572036565E-22   3.368957372434086E-22    4.657008081648803E-22    7.725795033027459E-22    1.6204669463095773E-21
                         5.484289588304872E-16    7.303485195675887E-19    -9.289537526536698E-22   2.7593463330250175E-21   3.6827083027094484E-18   -9.509678355905252E-22   -9.292848061212746E-22   -9.487617571400643E-22   -9.312112144845772E-22   -9.530474331092417E-22   1.6174357703571843E-21   5.113570716554251E-21    4.77031956434507E-20     1.3425851766691295E-19   4.639423337089225E-20    5.1333502639747976E-21   1.6218996455844736E-21   7.754452328919299E-22    4.681873532710765E-22    3.3540043205486044E-22   2.7758300825058585E-22   2.623713279759617E-22    2.790816687806684E-22    3.348159209152847E-22    4.676451444010184E-22    7.718739081468425E-22
                         5.48512527420597E-16     7.170285964479811E-19    -3.381704366834E-22      -3.4508241465907587E-22  3.69282509630613E-18     3.223089702202505E-21    -3.382725022860831E-22   -3.45321413561323E-22    -3.391670493771554E-22   -3.4620185516832224E-22  7.758659385331277E-22    1.6218394509642798E-21   5.110474016486099E-21    4.63975416337776E-20     1.3564864545491102E-19   4.781452007642739E-20    5.102771351326073E-21    1.6239624521193596E-21   7.7507563904884905E-22   4.699143742453486E-22    3.386235075152634E-22    2.826100441846932E-22    2.6611158099516088E-22   2.8069838928921267E-22   3.397924797529359E-22    4.713000735602341E-22
                         5.484497744798813E-16    6.969765056635685E-19    -7.976282621633884E-22   -8.144101024178742E-22   3.080047157823557E-21    3.7127816806627534E-18   -7.979415694247145E-22   -8.146759006538738E-22   -7.995884619120477E-22   -8.18394740674954E-22    4.688205613355266E-22    7.726044958700035E-22    1.622637689058139E-21    5.133887052267442E-21    4.781186384331925E-20    1.3226173459741774E-19   4.803693374717128E-20    5.129018109990191E-21    1.61973533362481E-21     7.722692510384034E-22    4.671454883453573E-22    3.3760766755113685E-22   2.799579262081304E-22    2.614695837561689E-22    2.791272693232189E-22    3.3681337034442563E-22
                         5.480807892691124E-16    6.572690073719836E-19    1.1187153123422606E-21   1.1428315113292542E-21   1.1218795811577305E-21   3.714436768921932E-18    4.945143324565575E-21    1.1427706471836406E-21   1.1207873938563731E-21   1.1501448669182297E-21   3.4944466532772494E-22   4.792589467404664E-22    7.837769134540614E-22    1.6332313247104862E-21   5.1108945710685666E-21   4.8047284576482E-20      1.36772950869009E-19     4.8065622665915677E-20   5.1279847802928785E-21   1.6346922841104643E-21   7.840168601769961E-22    4.823855726293425E-22    3.5088313254740123E-22   2.900308596469786E-22    2.74291476368706E-22     2.9134958369627893E-22
                         5.482500637558377E-16    6.533410402956943E-19    2.5190901860906184E-21   2.5730750332253957E-21   2.5259872800745157E-21   6.330586289872147E-21    3.7072584327700756E-18   2.5731908887125084E-21   2.5241893703662337E-21   2.58858774594281E-21     3.0105845290214796E-22   3.572737145070693E-22    4.888277837084526E-22    7.950245420458875E-22    1.6400612317135415E-21   5.1472512776957085E-21   4.807264850141869E-20    1.4259752485569167E-19   4.6446954440901357E-20   5.139737721503735E-21    1.6366906855662978E-21   7.959851161476589E-22    4.918721469362513E-22    3.565421656929342E-22    2.9975721541295785E-22   2.8418898350621877E-22
                         5.483020495123191E-16    7.235635541654705E-19    -6.718330313275061E-22   -6.858455734561771E-22   -6.732565434151823E-22   -6.875792064854297E-22   3.6977022013813916E-18   3.1556672125526116E-21   -6.735871388162898E-22   -6.888283525143031E-22   2.636645656684944E-22    2.7953772513622966E-22   3.3734806843027286E-22   4.696246291657197E-22    7.731977873333062E-22    1.6205766884154485E-21   5.118069720454156E-21    4.642894611697417E-20    1.3486090578062617E-19   4.7995789619055436E-20   5.114747298719745E-21    1.6225184216975042E-21   7.762073679039422E-22    4.679645890369461E-22    3.376225077110385E-22    2.7967498592795294E-22
                         5.483403871059672E-16    6.955106999254358E-19    -8.33705983996207E-22    -8.511239734432711E-22   -8.354936361598125E-22   -8.533408787405331E-22   3.0064057694888114E-21   3.715071576125663E-18    -8.357413218946795E-22   -8.550961867706794E-22   2.781945447689086E-22    2.608360526275847E-22    2.772824867384946E-22    3.357436040465406E-22    4.670408195984679E-22    7.720801481642532E-22    1.6240557678216938E-21   5.121158374089747E-21    4.799473264739247E-20    1.3204029803861916E-19   4.837531910173163E-20    5.119822874045519E-21    1.6215177474027864E-21   7.695171075487758E-22    4.666270825046286E-22    3.35238859528526E-22
                         5.480867102731667E-16    6.951422394928655E-19    -6.4935573018474015E-22  -6.629016759199987E-22   -6.50749411158792E-22    -6.646230639351167E-22   -6.496627407484875E-22   3.7049187978211956E-18   3.1254482839620486E-21   -6.658054429549416E-22   3.375579668489093E-22    2.7888548189593585E-22   2.6195054804358543E-22   2.789749138171435E-22    3.368182551694915E-22    4.679613113864047E-22    7.744608574078039E-22    1.6193272332430902E-21   5.114757318846769E-21    4.83763298941686E-20     1.3246517509624622E-19   4.820501770483424E-20    5.126601264313599E-21    1.618563789615206E-21    7.72535400941712E-22     4.6795208232141515E-22
                         5.483304639299141E-16    7.219541924435487E-19    -2.6352968720026055E-22  -2.688597545275088E-22   -2.638789980467404E-22   -2.6945764496911296E-22  -2.636337290828412E-22   3.50091841609076E-21     3.683757310088458E-18    -2.6948934857489725E-22  4.733395028972354E-22    3.40749061328229E-22     2.823991921697618E-22    2.6615736680517945E-22   2.8302791333039894E-22   3.4069790959535317E-22   4.745742162690643E-22    7.801363597535975E-22    1.624839670437197E-21    5.123136998917721E-21    4.8207251792221095E-20   1.3605019718164426E-19   4.6977995467865097E-20   5.126723008257366E-21    1.626480826253892E-21    7.770498321480115E-22
                         5.488567005165432E-16    7.28126957115079E-19     -7.1257398400684385E-22  -7.274695256670813E-22   -7.140880069040561E-22   -7.293471094291852E-22   -7.128424701380599E-22   -7.2772992167706845E-22  3.6923046017730825E-18   2.8447335038964343E-21   7.755850343706853E-22    4.698603014843263E-22    3.37767994107264E-22     2.8025609020427994E-22   2.6396253998083827E-22   2.8054903262093666E-22   3.407047682799048E-22    4.735553739447013E-22    7.759429655821054E-22    1.622309474779265E-21    5.126342264973121E-21    4.697540497197098E-20    1.349351025157976E-19    4.759917951709074E-20    5.138318280085538E-21    1.622258245092017E-21
                         5.480649216107463E-16    7.03644911876527E-19     -8.478879386403542E-22   -8.657875111223168E-22   -8.497868833335063E-22   -8.6804665540219E-22     -8.481936393331415E-22   -8.66041223075136E-22    2.9613454727906088E-21   3.708728356908482E-18    1.616187098415012E-21    7.700045467851815E-22    4.656148367555216E-22    3.3499970511511245E-22   2.777440958380673E-22    2.6113553916989524E-22   2.7952971894654033E-22   3.382681549377748E-22    4.667923346507612E-22    7.693663794436967E-22    1.6174297378391015E-21   5.123345373996084E-21    4.759825946232933E-20    1.3179163358771807E-19   4.819562339554039E-20    5.109319313873827E-21
                         5.484647098962541E-16    6.939473765356604E-19    2.8156374781562383E-21   -9.618466940354096E-22   -9.44135932616268E-22    -9.643557336908418E-22   -9.423504057931604E-22   -9.62134747523211E-22    -9.442906309013523E-22   3.713421983109157E-18    5.115537640657547E-21    1.6216988168778243E-21   7.719578210450675E-22    4.672751287754432E-22    3.36283977476619E-22     2.78263946870347E-22     2.632582336876753E-22    2.8090884118276287E-22   3.3590168153758044E-22   4.659440745431522E-22    7.708738939048471E-22    1.6225413067962487E-21   5.136843679837264E-21    4.819510964921769E-20    1.3203761797818276E-19   4.792071013737071E-20
                         5.48281156695516E-16     7.152305782779948E-19    3.692101286921365E-18    -4.967326790496114E-22   -4.87583774528472E-22    -4.976504048466604E-22   -4.868400185237938E-22   -4.971300438505504E-22   -4.885027962752828E-22   3.145439966066607E-21    4.63906726424104E-20     5.115852993003779E-21    1.6225011346540206E-21   7.742367859293853E-22    4.702508094031864E-22    3.3853848100158696E-22   2.819911808703372E-22    2.666411224285611E-22    2.8053523248961214E-22   3.3717698846221143E-22   4.687653023510573E-22    7.755705112252083E-22    1.6234299551740537E-21   5.111330719179056E-21    4.792331718299842E-20    1.353723518848404E-19
